# vtk DataFile Version 4.2
vtk output
ASCII
DATASET UNSTRUCTURED_GRID
POINTS 17595 float
86.928 51.047 0.033 78.353 64.329 42.557 99.816 73.907 59.444 
38.94 103.88 33.566 83.946 59.707 34.161 56.677 110.649 74.696 
99.36 68.699 52.525 116.114 110.48 13.29 74.945 128.51 43.854 
55.363 77.724 41.767 79.194 83.384 68.92 123.322 47.089 -0.043 
128.596 109.657 44.88 108.126 94.204 -0.023 133.174 89.544 40.042 
95.7 73.523 -0.009 119.176 76.912 50.472 83.272 52.789 17.564 
112.34 117.365 75.15 63.149 63.675 25.455 83.381 71.522 56.886 
111.136 58.332 23.875 82.406 162.876 17.058 89.396 63.033 -0.014 
68.138 79.105 -0.032 108.162 58.897 -0.035 134.111 76.577 -0.001 
109.377 73.153 53.947 113.02 93.143 68.658 113.071 65.943 38.977 
129.271 73.223 23.639 79.428 109.705 -0.001 49.643 140.779 -0.003 
114.408 82.799 60.982 126.809 95.991 56.38 136.567 116.741 41.313 
58.286 97.381 5.266 81.621 74.844 0.038 90.227 90.885 0.037 
91.072 63.138 44.352 98.771 58.635 32.321 80.797 48.698 8.221 
65.141 56.666 9.426 142.413 93.913 16.712 72.488 62.119 32.534 
65.768 69.14 41.889 65.241 79.319 57.389 48.749 97.232 54.973 
70.609 93.202 38.797 80.166 150.292 70.605 109.698 131.431 -0.034 
102.862 83.925 68.31 95.042 102.269 81.195 89.672 129.311 86.738 
44.025 79.924 18.397 72.717 57.448 21.333 63.33 93.689 69.56 
74.516 104.473 83.316 64.046 128.928 80.53 150.267 102.903 5.526 
131.389 127.038 6.786 109.601 163.547 -0.014 136.097 147.568 1.341 
48.697 68.31 0.018 33.692 119.474 10.263 36.493 83.187 0.967 
126.693 86.036 49.541 92.842 63.557 15.581 91.028 147.433 -0.026 
61.752 154.683 42.568 129.353 97.529 0.038 149.493 106.282 0.005 
42.247 105.208 8.586 147.826 122.001 0.022 105.387 142.345 69.919 
105.352 126.406 78.466 34.667 97.462 0.006 94.016 47.625 11.085 
91.312 165.865 1.153 101.454 164.18 17.242 73.112 156.963 0.015 
72.06 133.38 -0.029 123.565 109.047 45.272 44.629 140.624 31.333 
55.332 157.635 2.4 148.919 87.744 0.469 48.743 148.819 12.783 
37.801 135.929 11.165 44.284 151.924 1.564 37.061 141.703 -0.028 
42.43 128.692 0.015 57.767 127.735 -0.008 49.209 113.957 0.047 
63.461 105.74 -0.032 79.574 46.685 0 80.152 101.968 15.173 
70.444 65.137 -0.014 86.236 99.397 72.827 55.127 62.966 8.447 
60.096 70.325 -0.02 51.98 82.983 0.033 33.466 132.615 2.632 
33.928 122.328 0.037 31.819 109.819 2.011 115.368 86.767 52.884 
123.265 57.623 12.682 102.349 46.234 0.005 92.213 40.86 1.818 
121.154 59.941 0.031 113.331 75.924 -0.008 138.197 60.038 3.919 
57.928 138.707 70.086 110.397 117.17 58.885 50.69 135.47 60.067 
141.265 82.075 10.151 148.493 72.877 0.954 139.781 70.812 8.211 
75.72 139.627 83.864 133.414 135.672 31.629 85.67 140.194 28.705 
112.947 44.111 3.315 58.273 133.462 76.137 56.616 125.637 78.043 
49.143 120.551 65.447 76.905 69.842 38.305 78.151 158.239 52.764 
140.458 71.328 0.018 131.228 66.629 0.013 111.051 134.98 70.816 
138.184 90.724 0.037 127.594 86.113 0.035 123.786 74.177 0.025 
142.426 65.754 3.97 66.67 113.064 70.828 68.623 144.838 74.274 
63.811 149.983 58.788 86.433 113.933 87.285 79.215 123.637 91.346 
51.207 142.879 49.408 126.534 119.758 59.672 121.087 106.777 67.101 
149.932 114.268 8.049 104.346 111.655 54.933 139.67 98.968 30.476 
130.141 57.334 -0.001 143.991 76.142 5.629 147.776 78.521 1.967 
123.279 157.084 10.262 119.857 144.53 -0.007 126.615 153.628 -0.003 
120.386 162.497 1.243 113.859 162.589 9.99 145.243 68.439 -0.041 
93.892 150.037 68.229 105.113 151.886 57.768 115.208 98.863 18.694 
136.113 68.448 -0.043 132.094 71.77 -0.056 127.071 69.973 0.019 
119.672 67.576 0.057 125.704 64.018 -0.045 128.81 75.974 -0.002 
124.33 80.579 0.006 117.181 88.525 0.043 130.881 81.365 -0.052 
118.087 100.029 0.055 103.799 113.034 -0.015 133.61 86.765 0.03 
136.705 81.811 0.024 90.62 127.404 0.026 142.735 61.138 -0.019 
138.166 63.059 -0.01 90.964 118.629 13.954 132.83 57.364 5.623 
134.29 64.526 10.055 127.791 51.488 4.609 41.089 122.834 21.342 
110.012 93.004 11.437 136.249 82.59 21.011 85.796 84.999 9.56 
120.311 65.776 28.592 125.616 76.042 37.446 134.879 51.398 1.221 
140.219 55.22 0.165 117.428 52.703 0.001 123.801 53.493 -0.006 
136.67 55.913 2.877 127.207 50.018 0.007 45.349 90.55 40.473 
106.203 45.41 6.439 106.856 40.104 0.945 102.738 42.291 3.691 
99.863 46.111 8.31 100.773 50.64 15.717 97.893 42.091 0.017 
143.339 116.197 3.055 92.3 51.941 19.005 86.897 55.839 25.9 
99.624 54.71 23.966 136.007 102.87 43.463 44.221 111.913 53.661 
52.644 73.566 28.181 100.049 118.973 83.572 105.117 108.749 79.588 
106.216 130.078 77.117 65.298 158.467 8.899 85.812 116.967 41.636 
99.38 91.984 29.53 105.885 98.754 29.036 59.729 111.421 68.011 
92.983 139.454 27.244 65.996 71.249 34.263 77.97 122.277 65.025 
106.509 106.102 47.821 82.81 93.717 47.402 102.518 131.896 46.736 
70.88 104.02 55.562 53.206 130.229 52.76 64.747 109.334 44.572 
105.629 152.039 13.075 51.037 74.702 14.651 54.066 106.786 19.068 
72.319 155.181 10.207 96.71 82.779 26.073 143.634 135.485 1.969 
117.809 135.325 18.367 74.229 140.292 19.106 84.311 149.937 53.11 
80.789 126.542 62.327 81.5 162.546 35.315 63.169 81.532 18.367 
126.94 115.308 17.923 100.664 88.415 47.768 96.261 124.345 62.516 
105.767 149.205 -0.028 74.415 93.935 0.052 88.923 56.731 18.237 
129.797 95.437 7.461 78.627 123.333 13.794 72.978 105.661 60.171 
115.596 93.316 38.973 54.361 150.823 31.2 122.125 104.673 49.661 
84.144 105.101 19.173 116.788 107.502 48.04 110.396 110.339 15.491 
88.506 79.57 38.662 68.363 102.638 63.562 84.467 95.034 15.918 
60.861 135.939 36.942 103.524 100.694 15.257 122.175 108.543 35.465 
87.669 133.764 22.216 86.321 50.533 7.609 53.111 114.578 33.805 
83.483 115.642 3.931 106.089 160.343 32.458 57.976 137.613 20.729 
91.823 110.13 41.319 118.703 50.49 7.731 40.528 91.159 26.834 
104.045 117.421 5.906 126.974 108.104 0.016 64.691 157.63 30.914 
124.808 130.201 0.026 74.144 111.983 31.92 72.142 114.671 37.431 
70.948 80.83 32.306 73.353 99.352 76.152 88.29 137.501 12.137 
109.528 80.072 32.524 93.121 144.752 36.784 88.286 129.169 5.067 
93.326 163.428 28.326 116.607 119.228 31.463 81.966 99.43 2.856 
100.551 46.444 3.414 63.654 145.57 -0.016 50.111 107.967 64.18 
72.921 70.733 13.917 65.451 113.92 83.863 130.89 108.433 54.348 
35.91 113.966 23.538 114.239 121.725 12.74 105.608 158.224 42.061 
73.061 70.589 51.124 139.599 123.029 28.759 70.767 135.246 62.975 
124.514 123.745 30.044 89.162 116.116 72.762 70.294 124.101 39.55 
112.619 145.96 6.483 110.957 121.041 66.115 112.959 89.211 62.095 
105.06 105.088 65.311 96.874 87.845 12.769 98.226 118.114 49.376 
68.687 118.827 0.032 75.091 117.303 51.577 72.428 116.431 55.954 
73.434 94.493 76.367 92.033 104.957 46.987 110.748 95.456 48.67 
117.617 105.571 2.583 73.449 125.112 85.668 75.348 84.756 11.218 
95.151 72.025 28.288 65.237 128.451 12.298 112.278 126.768 65.586 
51.422 128.122 29.304 42.722 101.7 45.139 132.716 82.312 31.576 
141.259 96.58 3.378 75.903 145.024 -0.018 111.786 65.937 11.756 
87.467 130.166 71.985 41.182 119.681 7.535 75.032 126.681 78.161 
66.31 95.497 12.97 129.825 147.798 18.314 125.442 144.815 38.346 
54.967 101.481 38.369 98.821 139.404 57.933 90.607 156.698 57.187 
34.516 108.359 13.093 64.515 127.823 44.152 57.355 89.041 59.392 
59.299 114.989 0.001 132.019 129.573 44.021 92.783 116.159 0.027 
102.766 114.276 13.594 77.963 105.929 43.582 64.9 140.19 49.3 
36.757 127.552 21.96 127.999 127.995 13.081 75.444 161.201 9.354 
71.415 160.103 20.414 80.827 164.228 0.714 70.275 160.9 4.859 
126.287 83.973 48.396 74.12 163.656 0.018 70.183 160.826 0.012 
65.454 160.914 2.526 99.576 138.514 -0.031 90.197 145.613 51.926 
81.997 97.757 66.422 115.461 146.258 54.849 141.025 111.062 30.443 
73.228 111.86 72.127 61.72 100.835 54.572 81.878 88.469 31.18 
105.88 140.201 40.562 119.134 110.433 48.333 102.398 63.783 42.607 
96.406 151.178 32.596 86.628 132.624 24.751 97.404 156.586 0.047 
108.888 111.134 32.612 90.595 79.068 66.35 56.768 115.845 52.793 
72.536 159.55 42.432 84.992 64.559 10.172 47.414 71.301 11.255 
100.903 76.764 41.801 51.91 92.819 46.786 73.997 153.294 61.835 
89.461 123.807 21.051 113.936 130.935 52.832 92.055 91.288 49.05 
87.191 117.755 56.09 78.157 78.82 58.16 104.276 144.655 47.135 
106.933 96.909 67.744 80.647 108.033 11.748 74.767 118.654 4.327 
64.34 145.303 12.745 129.833 89.241 12.206 107.376 135.651 57.346 
108.083 104.442 73.085 103.392 82.975 -0.03 127.131 97.34 31.988 
116.671 146.38 12.172 59.931 122.874 82.34 109.389 93.223 29.085 
105.103 72.157 15.436 147.573 97.498 7.12 144.623 95.455 -0.019 
151.458 98.888 0.646 149.135 94.499 2.861 144.801 89.55 8.228 
103.479 111.808 64.989 147.019 103.289 12.836 152.718 103.278 1.438 
151.936 107.234 3.998 151.068 114.26 -0.003 141.29 112.046 0.015 
71.912 159.951 37.877 147.31 111.917 14.302 144.256 115.255 20.732 
153.583 107.166 0.149 150.845 118.703 4.068 146.562 125.144 8.021 
142.32 129.432 14.378 138.267 131.477 23.395 103.037 120.801 47.918 
115.02 94.472 10.937 41.72 105.763 -0.038 79.425 105.372 22.624 
51.973 123.958 32.715 130.9 151.218 6.684 42.724 132.925 41.14 
129.756 140.953 34.168 111.904 102.616 31.448 99.474 64.117 -0.037 
114.904 119.78 28.227 74.077 134.192 68.784 38.665 122.733 34.679 
39.984 113.295 42.237 81.303 62.452 10.039 61.033 149.972 55.064 
75.782 144.108 53.724 90.988 102.259 79.2 101.206 115.85 70.006 
85.459 105.783 9.994 131.962 95.153 48.037 81.244 66.269 21.76 
108.024 61.039 32.502 104.131 97.547 39.412 101.752 98.181 55.802 
108.516 124.686 62.231 115.887 116.06 28.652 114.851 125.942 71.105 
84.854 111.704 9.53 127.481 102.969 13.479 52.342 129.977 68.665 
36.551 103.25 23.11 131.172 106.45 25.06 111.052 83.309 44.12 
91.425 125.459 26.091 78.531 138.342 71.743 67.992 64.775 15.295 
108.809 128.23 37.111 129.179 144.831 28.449 54.746 67.326 18.861 
80.259 121.567 -0.031 94.166 83.001 23.449 69.116 80.149 21.656 
64.775 102.97 77.417 93.739 99.486 22.075 48.455 100.136 27.312 
82.949 154.322 17.695 135.915 112.128 10.693 101.307 123.977 -0.009 
[...]
POINT_DATA 17595
FIELD FieldData 1
displacements 3 17595 float
14.9179 35.5611 -0.073128 8.27425 16.2204 4.38565 8.07632 8.09278 9.58721 
-6.31011 -2.35993 6.78824 10.3754 21.484 2.57694 -4.48612 -4.89955 11.1081 
9.99757 12.3135 8.18336 6.28295 8.34953 4.62202 -7.32694 -4.27034 11.2857 
-0.298663 4.51984 5.45751 2.06897 2.0597 9.12803 26.4695 35.1664 0.151153 
5.44173 9.55196 11.1502 9.75562 15.2306 0.518943 10.7568 15.1022 9.59351 
11.9878 25.3285 -0.519692 10.3421 13.1717 9.36865 12.8795 28.3966 1.06138 
-1.35952 4.11745 13.3101 4.99482 16.7949 1.81519 6.34228 8.3966 7.6479 
18.323 23.5965 4.81926 -12.3562 -15.6358 3.51874 11.9304 30.3861 -0.334564 
-1.15389 17.4566 0.308355 20.8405 31.8956 0.311042 20.1619 25.3886 0.153581 
10.5446 11.8174 9.48222 3.83418 6.96529 11.4403 14.3351 16.4379 7.582 
16.6958 20.3861 6.12244 -3.60331 5.17388 0.157273 -14.8774 -6.36203 0.123806 
7.21461 10.1912 10.4611 5.36561 10.5866 11.3561 4.90528 10.6302 9.49072 
-6.95906 6.12449 1.48563 4.58819 23.2159 0.10864 4.42731 16.1497 -0.0854484 
11.2 16.9648 5.27465 15.0553 22.8703 3.62306 13.8065 31.1323 1.26185 
8.16984 23.5217 0.384008 13.1292 20.0626 4.85582 7.56523 18.7994 2.53105 
4.07001 11.8583 4.14278 1.71101 2.7694 7.17017 -2.75694 -2.69589 8.33824 
-1.02312 4.76201 9.10308 -8.85955 -4.76575 12.1249 2.27978 -2.512 0.119917 
5.05248 6.03624 11.1592 -0.10918 0.99982 11.8444 -6.24452 -1.45935 13.3791 
-3.75113 4.79668 2.97034 9.55235 24.0065 2.00361 -0.599001 -2.31317 9.55651 
-1.65081 -2.78166 11.4096 -6.97821 -5.29996 12.2077 11.7929 20.6902 1.316 
6.67273 6.65606 2.29214 -7.69157 -17.5958 -0.0491829 -1.25964 0.767611 0.959275 
0.677914 13.0318 -0.176816 -10.2931 -4.0666 2.32679 -4.57402 3.54389 0.0653542 
9.38352 13.2092 10.1141 12.0678 24.9344 3.51013 -9.42055 -12.2585 -0.0175267 
-12.3247 -8.06378 8.1591 12.535 17.4748 0.112456 11.4714 19.6485 0.16999 
-9.04049 0.128498 1.93126 6.79947 14.3674 0.313355 -5.54879 -0.629065 13.0263 
-3.72897 1.7422 13.6651 -7.40952 0.189189 0.208504 17.8475 33.1598 2.07982 
-10.7277 -17.8703 0.596551 -8.89185 -17.0566 2.26291 -13.4775 -13.6947 0.648555 
-11.1995 -5.44806 0.0452261 4.9111 8.17819 10.8783 -12.9119 -7.31215 7.52991 
-14.4638 -11.3314 0.547014 18.0407 23.8061 -0.394636 -14.475 -7.60204 2.92267 
-13.0439 -5.94086 2.35551 -14.2475 -7.38938 0.610955 -13.6589 -6.21774 0.319643 
-12.9694 -4.40207 -0.0193167 -12.5246 -3.72721 0.121298 -10.3843 0.0495223 0.34392 
-7.73967 5.39673 -0.0280656 14.5271 34.2575 0.0954897 -2.03798 7.32943 4.80442 
4.53951 23.8378 0.117271 0.280935 0.956002 11.2579 3.62996 17.4976 0.628359 
0.301019 18.4923 -0.253496 -5.40962 9.42518 -0.043805 -12.7968 -5.73193 0.777422 
-11.3896 -4.28511 -0.035213 -9.81619 -1.85286 0.260904 7.78108 10.6469 11.1172 
20.3843 26.2359 3.68472 20.9113 38.791 0.113153 19.6224 40.3156 -0.0648122 
23.5566 31.3423 0.106778 18.1459 25.0619 -0.0951229 24.2236 28.914 0.636231 
-8.67365 -6.35596 11.6982 -0.0125849 3.50481 12.8898 -9.07985 -6.74974 11.3019 
16.1675 22.591 2.62701 21.3628 26.6883 -0.460966 20.8021 25.6742 2.07791 
-7.38325 -3.66886 12.0732 2.65586 5.77122 8.6569 -9.07772 -8.19978 7.94082 
21.8342 36.2542 0.637742 -7.52785 -5.98258 11.5583 -6.15474 -6.3511 11.7182 
-5.69449 -5.58593 11.0195 5.75909 15.4103 4.9659 -10.467 -11.2296 9.01117 
21.8649 27.5315 -0.0883389 22.3087 27.9661 -0.0766944 -4.09001 1.36876 13.702 
15.5931 21.4297 -0.112594 16.664 21.3556 0.242871 21.1944 26.4706 0.383574 
22.9842 28.6656 0.825782 -4.07452 -3.11495 11.5398 -8.61826 -5.10995 12.3341 
-9.82575 -5.98372 10.6831 -3.40807 -1.19937 11.6899 -5.54911 -3.17493 12.2365 
-11.2844 -7.00253 10.0197 0.68126 6.58935 12.7096 2.11396 6.91183 12.6516 
8.94326 16.7565 1.71095 1.02201 3.41899 12.2902 10.6364 16.5812 8.04741 
25.3651 30.4658 0.38733 19.8923 25.8843 0.685424 18.7603 25.3561 -0.0837512 
-4.42711 -10.0587 2.21275 0.785436 -7.477 0.28595 -3.22897 -8.69469 0.380584 
-7.41145 -14.6008 0.125304 -7.00622 -14.4913 2.06257 22.4378 28.5525 0.0251899 
-7.30135 -3.60296 11.6177 -6.71492 -5.24483 11.0868 8.55205 12.3703 6.39553 
21.8672 27.2441 0.123418 20.9828 26.7974 0.502551 21.9426 27.2236 0.149385 
21.9646 28.252 0.71282 22.7005 28.467 -0.309844 20.1738 25.708 0.18337 
17.7142 22.8831 0.0376712 14.5981 20.3678 0.273888 18.5788 24.0706 -0.215488 
9.80683 13.8455 0.282094 2.89012 5.52302 0.0504669 16.1268 21.5419 0.0134826 
18.2222 23.9685 -0.00663137 -3.74706 -2.42668 0.142974 25.0618 30.3227 -0.0732033 
24.2208 29.4753 0.276136 -2.24163 1.06849 5.30871 24.4618 29.3419 1.30155 
21.4213 26.9817 1.94337 25.0134 31.0972 0.593875 -10.6615 -4.11967 5.66926 
10.4049 14.5891 5.16972 15.2135 20.0929 5.598 4.33389 16.699 3.12373 
17.4643 20.031 6.99099 13.7066 16.411 8.0979 26.1279 31.4608 -0.0686836 
25.9418 31.253 -0.842674 23.6522 33.2926 0.175027 25.1459 31.8447 -0.0211014 
24.4424 29.4244 0.136956 26.0856 32.7926 -0.0130244 -3.17628 0.221031 6.8177 
20.5982 35.3132 1.70057 21.1164 40.7556 -0.279509 20.3966 38.4415 0.487064 
18.8192 34.0314 1.67686 18.4381 29.9364 2.8129 19.9249 41.3121 -0.182308 
9.08888 14.7962 1.11161 14.9106 28.6115 2.37814 12.5896 25.0213 2.20052 
16.6585 25.6759 3.68725 6.77065 12.5555 10.0628 -3.58261 -2.9413 9.53999 
-0.406643 7.73981 3.80082 -3.46328 1.30032 12.8472 -1.03939 2.73852 12.9535 
-4.54065 1.0131 14.3625 -14.1724 -11.4458 1.96717 -2.8809 0.213242 10.4498 
6.52729 10.2724 8.72224 5.3135 8.80284 9.15643 -4.37696 -4.06785 10.7798 
-6.15857 -7.74061 7.65648 2.72791 12.7793 3.77886 -4.84713 -2.44454 11.9063 
2.63102 5.89195 11.6192 1.02787 5.52879 10.9307 -2.27996 -2.24142 13.1215 
-2.52633 -0.0227474 10.9452 -8.92271 -5.57952 10.8871 -4.39346 0.103661 9.0902 
-5.25458 -12.6139 3.92782 -1.70231 10.1108 2.49817 -7.80719 1.36988 5.3679 
-13.9366 -12.1157 2.73114 8.26159 14.7525 7.76434 3.70113 9.63559 0.527245 
2.40403 -1.75347 6.5284 -11.1597 -7.91526 5.19493 -9.02051 -8.66795 10.9654 
-5.73468 -2.8058 12.3192 -11.3083 -15.0017 6.23069 -2.1275 12.0605 3.8526 
7.02705 8.03692 5.79759 5.40511 9.11087 10.8176 -3.42044 -0.358812 13.2132 
-4.68849 -12.6513 0.29527 -2.77784 12.4116 -0.18164 13.4699 27.3735 2.5154 
12.6205 17.6453 2.36573 -6.52008 -1.4605 4.7481 -2.48769 -0.619429 11.1944 
8.40341 11.8856 10.8022 -13.3969 -7.84195 6.20911 4.77922 8.7721 11.5433 
-0.946447 5.99165 6.44499 4.10026 7.26373 11.5803 4.78618 7.31767 5.36759 
6.14362 12.7185 8.44517 -2.296 -1.69372 10.5484 0.353629 10.6899 5.53687 
-10.6523 -5.59824 9.39237 5.49889 9.85091 5.67521 6.10079 9.42492 10.1544 
-6.44699 -5.16644 6.4389 14.8669 32.5592 1.32339 -7.60121 -1.89097 7.63013 
-3.55324 1.85172 1.25794 -7.69005 -13.0318 6.4284 -12.9747 -5.74718 4.63038 
-0.413187 2.86649 10.3642 23.1645 31.3853 2.1256 -4.82135 0.866494 5.0415 
2.21122 3.24103 2.58054 9.5827 12.1398 0.466931 -13.7744 -9.90141 6.08529 
5.85484 2.30652 0.313217 -4.2471 1.64047 8.68816 -4.46484 -0.0124394 9.48523 
0.553029 11.1246 6.20064 -1.13925 -2.23471 10.633 -7.47247 -7.00076 3.71796 
12.554 15.7539 8.51439 -6.73665 -9.00278 9.4309 -5.14206 -3.5665 1.80065 
-10.553 -16.2953 4.69839 3.59713 4.7904 9.72176 -1.8255 9.76629 0.932087 
19.793 37.6822 0.810098 -14.682 -9.01282 -0.0382563 -4.7493 -5.0864 10.0587 
3.78536 20.7964 2.60936 -3.89698 -4.5088 11.6186 4.59093 9.46823 11.7682 
-8.92173 -3.1075 5.27701 4.59307 3.15212 4.7032 -7.57034 -11.345 7.16737 
5.15323 9.84146 6.35973 5.03544 10.3581 7.3728 -8.02345 -4.88191 12.3617 
4.00512 5.14055 9.22249 -3.67483 -1.06637 12.7094 -7.22412 -3.32101 9.89922 
-1.03941 -9.36073 2.28001 -1.2249 3.20352 13.2676 4.97709 8.21012 11.1556 
1.01449 4.10764 12.5156 7.3019 14.9882 4.33555 -0.952164 0.907121 11.9719 
-8.91355 0.129722 0.603869 -4.93247 -2.10268 11.3516 -5.07671 -1.85954 10.7363 
-0.270657 -1.41043 10.4892 0.689387 3.52083 10.7338 5.31237 8.29257 11.3325 
8.65961 11.4811 1.23507 -5.67401 -3.66842 12.1847 -0.823025 13.9075 3.00608 
11.6075 18.7634 6.45736 -10.9678 -3.69087 3.36808 -2.0026 2.77292 13.3241 
-10.6367 -4.85183 7.2354 -4.55743 -2.53536 7.80293 14.0219 18.1481 7.57311 
13.6402 19.4168 1.13477 -13.2891 -10.8409 -0.0974225 19.4232 25.5028 4.81224 
-5.92468 -1.98278 12.6394 -11.1961 -2.74681 1.96441 -6.00395 -3.56135 12.3269 
-4.54687 8.46869 4.03445 -0.960154 -1.11501 5.21927 -1.17919 1.15936 9.57569 
-4.73 0.755755 7.7433 -4.76532 -2.80802 13.1155 -8.98097 -8.55758 9.95421 
-8.36621 -1.66077 3.39988 -8.32255 -4.33207 10.9202 -0.841445 -0.625896 8.12995 
-10.232 0.487209 0.412153 1.44811 6.14402 11.0084 -0.56483 2.42239 0.0705954 
2.0465 4.73458 5.34796 -2.23816 2.14435 10.0482 -10.663 -6.28657 11.3825 
-10.7297 -4.77061 4.99677 6.01914 5.05978 4.54254 -12.9641 -14.0517 1.79154 
-12.6783 -12.332 4.16316 -11.7355 -16.1202 -0.0795856 -13.6224 -13.3384 1.63979 
9.52116 13.4716 10.2165 -14.0397 -16.246 0.755583 -13.8394 -14.7 0.548922 
-14.2582 -13.2546 0.937354 -4.04732 -7.00619 -0.168395 -6.8266 -7.02292 11.9823 
-0.417636 0.622243 10.6988 -3.88103 -0.798005 11.7628 7.03975 13.7129 7.83576 
-3.32374 -2.21259 11.5166 -2.76401 -0.921646 9.55897 1.87089 9.81252 8.08295 
-1.98145 -4.70787 10.893 3.38045 6.65343 11.7615 13.4965 17.1129 6.724 
-6.88774 -10.9877 7.61886 -6.24346 -4.7119 7.6576 -9.20146 -15.7203 0.427373 
3.50492 5.55066 9.92388 5.49232 5.71996 10.1435 -6.31012 -3.62475 10.4599 
-11.8474 -11.4339 7.2422 10.2229 26.3093 2.27707 -0.416962 9.76755 1.58412 
10.5478 13.4115 9.3857 -2.57852 -0.18022 7.66055 -10.3177 -7.00146 10.8449 
-3.27376 -1.0233 6.8536 -1.13125 1.19853 13.1022 3.34006 7.0959 10.8408 
-3.05545 -0.484649 12.0343 3.58578 5.46938 8.611 -4.02148 -5.79656 11.253 
2.28675 5.43424 12.0715 -3.18404 5.03491 4.33397 -6.8518 0.399942 1.36551 
-13.8493 -8.21221 3.03486 14.3809 18.7564 4.00285 -3.12809 -0.868674 13.2118 
0.897585 4.74658 12.3278 12.212 20.8272 0.00989366 9.34408 13.1879 9.06834 
0.387999 -6.91677 4.72304 -5.37885 -5.43874 11.9569 8.0775 11.5482 8.887 
14.971 21.8563 5.19463 13.0998 20.0772 1.99653 15.1077 21.799 -0.0526767 
12.8583 22.0538 -0.0790629 14.065 22.0137 0.265185 15.2967 22.2242 2.54397 
-0.0309132 2.77074 13.1205 11.5919 18.4672 3.1849 11.6423 21.2179 0.530245 
10.8372 19.5252 0.996163 9.15421 17.1884 0.0582123 10.3332 15.8964 -0.00190485 
-12.2751 -11.774 7.25264 8.78002 16.5184 3.05806 7.93067 14.1644 4.9321 
11.6506 20.3202 0.00930464 8.22992 16.101 0.875502 6.52477 13.0756 1.60656 
5.28932 10.6856 4.01204 4.00639 8.25915 5.92295 -0.301622 1.30021 12.5055 
11.038 15.0832 3.98792 -9.75229 0.432665 -0.0522412 -2.585 4.56974 7.28883 
-10.0469 -4.21914 7.84701 -1.34636 -3.54614 2.35103 -10.1922 -6.08212 8.14828 
0.933838 3.59239 8.86906 5.88778 9.21268 9.5303 16.7394 31.1027 0.0837129 
3.30273 4.33305 8.91644 -7.08852 -3.69494 12.5112 -8.77845 -4.6421 7.0504 
-6.48476 -3.85401 8.07222 8.80779 26.568 2.07691 -10.6978 -6.35851 9.95144 
-9.91761 -7.24951 11.9763 -0.628247 0.765159 11.7171 -2.25785 1.90313 13.3884 
-0.807679 6.6764 3.76237 6.75585 12.6152 10.2403 9.24911 21.6219 4.49776 
16.198 19.9328 5.67112 5.17187 8.97056 10.3916 2.5395 5.82541 11.3571 
-1.95747 1.53343 13.9415 3.95722 5.86313 8.95735 -2.88651 2.55573 14.6611 
-2.32205 3.66159 3.55346 10.2497 13.6028 4.04506 -7.66575 -6.61457 10.9003 
-8.34165 -2.22939 4.68918 8.46414 12.6023 7.54991 9.53262 12.3365 9.83122 
-3.14629 -1.38677 8.21407 -7.52313 -3.67756 12.4591 4.81785 21.205 1.73205 
0.972063 0.0446887 10.7553 0.0471357 0.825283 6.99305 2.56453 13.4212 2.07158 
-6.6751 -0.340284 0.249859 8.31191 15.8165 7.09636 -0.597025 12.0143 4.95092 
-2.13915 -2.86702 9.6392 3.52351 8.03844 7.52273 -7.04501 1.57713 5.51412 
-12.6287 -12.934 3.97766 9.44563 13.1317 3.3535 0.30191 0.29259 0.223133 
-10.94 -15.1002 0.391921 -12.396 -3.64851 1.01988 -6.1596 -5.5813 9.99938 
-7.55783 4.11522 2.27493 3.8634 0.0506545 0.140082 0.502702 2.44617 7.97435 
2.78182 6.335 12.4475 -7.69616 0.595566 5.56376 12.7224 14.8796 9.44799 
-6.09998 2.14186 1.13837 -7.21637 3.70777 -0.174379 -6.63906 2.16336 0.0440381 
5.77417 8.71632 7.05004 -2.39777 1.0754 4.16018 -9.12395 -1.82373 5.50964 
-3.10651 -0.473468 10.7 -8.79766 -17.6061 1.49637 -9.45227 -16.6767 1.81136 
-10.3647 -18.079 -0.425841 -2.3388 0.98091 14.1054 -1.03291 -2.13971 6.14074 
-8.76627 -7.8776 0.348961 -2.95677 -0.549631 10.5103 -13.4873 -11.6979 4.0498 
3.30842 5.90965 10.7064 -0.179553 14.169 2.17794 -13.0051 -6.32443 4.51975 
-2.34908 3.58367 4.74113 -11.9891 -8.35043 9.12114 6.75913 8.35884 0.295317 
-5.58499 -2.12825 8.70909 -6.0716 -10.7598 3.06774 12.8273 18.4643 7.35006 
-6.36432 -0.317525 12.4624 -8.36652 1.00753 4.59225 13.867 19.3511 3.99938 
-3.1058 -6.90479 9.9256 -1.27452 1.52281 12.6329 2.90151 8.7462 11.7897 
8.22824 16.1893 -0.0165592 5.55242 11.07 0.270461 -8.40117 -4.93347 12.5944 
-6.33539 2.37717 3.76133 6.21608 10.1967 10.7912 19.5745 23.4051 3.63103 
-0.920622 2.70339 12.7144 3.88347 10.1122 3.95639 -4.30832 -3.14837 10.3747 
-5.51335 -3.70162 11.8821 -7.34841 -3.59142 12.5763 -5.70543 -3.84345 11.9012 
-7.3546 -4.63182 12.1114 -6.74881 -5.10469 11.9143 -5.59201 -3.99363 11.8273 
-4.99174 -4.09172 11.8828 -5.12482 -4.82744 11.9221 -5.24014 -4.955 11.1535 
-4.73236 -5.50977 11.0353 -5.60033 -3.72254 12.0463 10.6211 30.2395 -0.119313 
-2.13255 -1.95883 11.8243 -4.71233 -2.89327 12.3001 -5.58057 -2.34086 12.8685 
-4.60029 -0.654098 12.9366 -5.22625 -3.29651 11.9739 -6.43097 -3.17518 12.8374 
-6.88894 -2.41259 12.5456 3.25631 4.65055 7.50187 0.439584 0.383447 10.2166 
-6.12576 -0.398563 6.84971 -13.6487 -6.14784 -0.0243546 2.9904 -0.761613 4.04601 
-12.2867 -14.4396 4.96638 -4.74357 -1.01878 12.5901 -4.1618 7.91403 3.72319 
-3.42365 -0.803692 12.2825 -8.23657 -5.33206 12.5998 -6.48412 -1.9906 12.7529 
-0.163529 1.91124 12.8712 -6.5736 -5.66247 12.4869 -2.99423 2.68223 13.398 
-6.35888 -1.10766 8.5759 -14.5873 -10.4077 2.92999 10.4356 17.2591 3.65304 
-10.0303 -5.97246 10.0222 11.4478 17.2381 4.65521 -3.70223 7.70366 -0.0804629 
-0.769922 8.53648 0.619424 -3.21689 5.92973 0.500844 -1.31053 7.4692 -0.318381 
-1.84751 10.5095 0.0662296 -1.54589 14.2523 -0.0394106 -3.3871 14.6795 -0.121605 
2.2283 18.5536 -0.360429 -11.8699 -7.90046 0.93249 3.66086 17.2565 0.0653371 
2.62202 13.842 1.0077 4.29419 20.3087 -0.410358 4.46415 20.7379 -0.0245726 
-12.1372 -4.73452 0.264154 1.49812 21.2608 0.218383 8.56663 10.4031 2.52951 
7.80683 27.4578 0.0802476 4.03884 16.5773 -0.30734 2.67715 14.5346 0.249884 
-3.3044 6.52583 -0.095838 -4.71227 5.16273 0.15111 -5.83893 7.08455 0.0292861 
-6.93772 6.08656 0.125416 -5.71691 4.14971 -0.0971028 -3.44418 5.0255 0.461979 
-4.65015 4.18915 0.977533 -5.23235 3.29565 2.60778 0.448385 5.68054 11.9596 
-0.982983 7.88435 5.97806 5.49837 7.92558 11.3848 7.42494 13.1329 6.15385 
-2.71206 -0.636648 11.9284 4.16031 -0.838249 3.62508 -4.05927 11.7047 2.35239 
-7.45868 -14.4743 3.39474 1.94037 6.17068 5.67809 -5.84193 -8.86622 6.82031 
5.72815 9.35331 9.65802 -7.98754 -15.6661 4.12151 7.52772 6.18378 0.133482 
4.99596 2.52375 -0.164472 -5.45192 4.97932 5.25762 -9.10884 -5.83377 10.7567 
0.269484 2.49541 12.3149 1.91576 3.64503 11.5799 -12.5679 -6.91768 8.54298 
-3.53906 -6.3883 6.02774 -1.08986 -2.51003 11.3158 -7.30257 -3.11873 12.375 
-10.0682 -13.3177 7.58274 11.9949 16.1115 6.48679 1.08335 0.305412 9.21271 
-8.03638 -6.83469 10.2759 10.9348 13.7865 10.0719 1.27555 16.9339 0.313962 
-12.8011 -11.1614 4.87264 -1.53395 2.15037 5.76081 -1.1596 4.25291 4.75547 
-4.15091 13.001 1.73109 -9.30809 -6.48249 10.0184 -12.19 -9.36833 9.84905 
-5.59558 -1.75026 13.0017 14.2414 29.0998 2.2448 -6.82923 -4.4564 12.6796 
-3.85322 2.46004 9.01033 -10.8227 -13.8377 6.02771 3.82945 2.10987 8.15714 
3.23512 19.2397 3.133 8.66069 12.4489 9.09467 0.117544 10.6911 0.545219 
22.3499 25.7301 4.09246 -8.24577 -0.854562 6.24862 6.09697 9.31329 5.74979 
-4.16229 0.0090369 13.3232 12.2594 20.4656 3.25942 -6.02098 1.8233 2.9803 
4.86523 7.94299 10.7107 -8.08688 -5.81262 11.4413 8.73106 13.1586 7.86311 
8.62525 13.4266 9.23208 -2.73122 1.00291 8.08567 -3.22795 1.75404 8.882 
-4.60667 -2.00833 10.7773 12.0438 15.609 9.89307 -11.742 -1.7655 0.000676155 
2.39946 4.54667 10.1957 3.86201 -0.0248728 7.38883 -9.9151 -14.5858 6.01552 
5.45362 18.8647 1.4318 -4.23613 -2.56764 12.7215 -2.62612 -2.23553 10.0302 
-11.4601 -5.04496 2.41626 2.75152 19.4608 1.84582 -6.93196 -2.91596 10.0524 
6.56894 10.1192 -0.0195071 -8.93693 -5.4122 9.97426 2.38283 4.57162 8.91603 
0.621144 3.52505 12.4715 -14.0156 -7.89586 4.88489 -3.09335 -3.01056 10.669 
2.78914 6.06797 8.9485 -0.155026 1.10873 9.83373 -12.5838 -15.7888 2.08657 
-3.72743 3.14661 5.6921 -2.44058 -3.29703 0.228048 -13.5074 -8.91539 5.88206 
-4.50491 -3.10737 3.9374 -14.5155 -6.81831 2.18921 -7.81486 -4.26714 6.83797 
2.82443 11.7475 3.58085 0.674926 4.18312 12.3296 8.96796 16.013 6.62575 
-11.1391 -2.59865 -0.0500926 -12.9803 -4.06337 1.51364 7.71685 8.49457 2.64023 
-11.3086 -5.28601 5.11073 -5.84563 -6.22163 9.43376 -9.71508 -3.81852 8.76302 
-8.64748 -5.62322 8.90847 -14.3736 -11.6885 1.58289 -5.71905 -1.75146 12.5744 
-2.43995 -2.45435 7.64572 -15.0991 -8.09685 -0.00864851 -4.49968 -1.05081 10.4182 
1.96339 -0.0955251 8.73502 6.66932 21.5935 3.04748 5.90501 13.4667 0.637961 
3.0991 3.93863 8.67667 -2.18607 -8.66491 4.56954 -4.66231 -12.8548 2.9982 
-14.2608 -6.82941 0.220186 -13.5401 -4.99654 -0.124783 -11.7552 -6.89266 8.79676 
-9.66143 -6.69076 11.0283 -5.36591 -4.6224 12.0347 13.4549 19.2703 2.93294 
6.82818 10.4128 8.47945 2.61588 5.82454 10.9851 -0.985606 -0.715085 10.8279 
6.25202 7.82339 10.8548 -9.42998 -12.1911 8.13102 -6.56392 -6.17832 11.6181 
9.02488 14.6922 4.10325 -6.9843 -4.75356 12.4106 -13.5063 -6.06262 2.37699 
2.86459 15.7656 3.31144 -11.9638 -4.92934 4.99127 -10.6841 -4.34117 4.62081 
-0.468008 0.415083 10.5009 5.46998 12.6122 6.8048 3.79358 8.49264 11.5152 
-6.70835 -0.18569 4.60564 3.81811 11.3523 7.40634 -8.7341 -5.10099 11.4838 
-12.9131 -8.34361 7.90839 -14.0484 -11.4436 0.0951951 -0.332898 -8.10456 0.372504 
-8.93639 -5.39998 11.969 -9.73116 -14.7536 2.31521 -0.241646 2.23797 12.3007 
-9.72926 -2.42433 0.39693 -9.28747 -4.7357 0.126827 -12.0784 -4.00921 0.466484 
-13.7338 -5.7314 2.36614 3.20162 8.71891 9.83359 0.756796 0.283185 9.5987 
-5.69645 5.80511 1.3843 -2.77369 0.874967 11.1141 -4.79813 -4.18991 12.1691 
1.79724 -0.23303 2.79241 -14.0838 -8.77884 3.52157 2.25682 12.3531 2.33162 
15.1712 17.5766 7.44146 5.50474 8.72615 11.9757 12.8378 14.6907 8.50671 
2.57835 7.88962 13.0289 -4.53542 -7.95273 5.51674 3.53526 3.05116 0.146884 
-12.952 -7.98151 0.281431 12.4334 23.5972 4.29162 -5.34335 -12.0292 3.75728 
-0.646614 3.51678 10.0459 -5.45723 -4.69301 10.7368 7.58442 13.9785 9.63565 
-2.45603 3.34754 7.48342 -10.7667 -6.40136 9.09074 7.50985 6.95354 2.01922 
-12.0839 -9.1476 9.15012 1.22013 14.9666 3.06765 -10.8858 -16.9059 3.11472 
5.26608 4.48422 2.61137 -4.45418 -8.847 4.05963 -8.70046 1.99589 0.912355 
-11.4492 -3.01266 2.2045 5.40002 7.0286 9.21411 -6.0685 -4.60938 8.44407 
-9.63572 -1.41842 1.06827 -3.07838 -5.71826 2.96474 -6.44492 -1.65351 8.00901 
4.18646 14.0123 6.67108 11.1126 17.3547 6.04134 6.80398 22.5023 2.80709 
-4.91314 -1.37223 12.4919 -10.6737 -10.3809 7.47734 -7.38599 -5.70514 11.3677 
-3.22552 -3.3565 9.49566 -14.1689 -6.7101 1.60799 -2.46117 0.751439 11.1539 
-0.00225413 2.83942 12.3743 6.7247 15.9812 6.2462 4.77035 8.1866 3.18164 
14.3759 18.0419 6.88185 -13.6706 -10.7989 3.38443 9.0385 10.7215 9.92419 
-6.15586 -5.28383 11.9716 1.59795 2.43534 7.29491 -13.6271 -7.43492 5.08581 
-1.72373 -0.350935 8.20574 17.7894 23.2939 4.40137 -6.93826 -5.86772 9.69847 
-2.87008 8.86701 5.81494 -7.52575 -4.76455 12.3705 0.843477 6.87222 8.92515 
-4.34782 9.49804 1.72472 19.0739 23.2218 5.2896 9.61105 17.9969 1.02656 
-9.39413 -6.13506 11.9088 14.0366 27.1678 2.59563 -8.17272 -0.196512 4.47775 
-5.96631 -6.22035 12.0606 -13.6326 -11.226 3.10766 0.481547 4.53668 8.54228 
-11.8604 -3.51645 2.48518 11.9669 21.7194 5.19016 -4.03059 -1.42215 11.1319 
4.05792 6.21661 7.57103 -7.00284 4.36907 0.218362 -4.16343 -2.17663 11.4228 
-8.34998 3.10539 -0.0361353 -11.9174 -5.61687 6.95979 -8.80352 -1.47136 5.03432 