# vtk DataFile Version 4.2
vtk output
ASCII
DATASET UNSTRUCTURED_GRID
POINTS 17595 float
86.928 51.047 0.033 78.353 64.329 42.557 99.816 73.907 59.444 
38.94 103.88 33.566 83.946 59.707 34.161 56.677 110.649 74.696 
99.36 68.699 52.525 116.114 110.48 13.29 74.945 128.51 43.854 
55.363 77.724 41.767 79.194 83.384 68.92 123.322 47.089 -0.043 
128.596 109.657 44.88 108.126 94.204 -0.023 133.174 89.544 40.042 
95.7 73.523 -0.009 119.176 76.912 50.472 83.272 52.789 17.564 
112.34 117.365 75.15 63.149 63.675 25.455 83.381 71.522 56.886 
111.136 58.332 23.875 82.406 162.876 17.058 89.396 63.033 -0.014 
68.138 79.105 -0.032 108.162 58.897 -0.035 134.111 76.577 -0.001 
109.377 73.153 53.947 113.02 93.143 68.658 113.071 65.943 38.977 
129.271 73.223 23.639 79.428 109.705 -0.001 49.643 140.779 -0.003 
114.408 82.799 60.982 126.809 95.991 56.38 136.567 116.741 41.313 
58.286 97.381 5.266 81.621 74.844 0.038 90.227 90.885 0.037 
91.072 63.138 44.352 98.771 58.635 32.321 80.797 48.698 8.221 
65.141 56.666 9.426 142.413 93.913 16.712 72.488 62.119 32.534 
65.768 69.14 41.889 65.241 79.319 57.389 48.749 97.232 54.973 
70.609 93.202 38.797 80.166 150.292 70.605 109.698 131.431 -0.034 
102.862 83.925 68.31 95.042 102.269 81.195 89.672 129.311 86.738 
44.025 79.924 18.397 72.717 57.448 21.333 63.33 93.689 69.56 
74.516 104.473 83.316 64.046 128.928 80.53 150.267 102.903 5.526 
131.389 127.038 6.786 109.601 163.547 -0.014 136.097 147.568 1.341 
48.697 68.31 0.018 33.692 119.474 10.263 36.493 83.187 0.967 
126.693 86.036 49.541 92.842 63.557 15.581 91.028 147.433 -0.026 
61.752 154.683 42.568 129.353 97.529 0.038 149.493 106.282 0.005 
42.247 105.208 8.586 147.826 122.001 0.022 105.387 142.345 69.919 
105.352 126.406 78.466 34.667 97.462 0.006 94.016 47.625 11.085 
91.312 165.865 1.153 101.454 164.18 17.242 73.112 156.963 0.015 
72.06 133.38 -0.029 123.565 109.047 45.272 44.629 140.624 31.333 
55.332 157.635 2.4 148.919 87.744 0.469 48.743 148.819 12.783 
37.801 135.929 11.165 44.284 151.924 1.564 37.061 141.703 -0.028 
42.43 128.692 0.015 57.767 127.735 -0.008 49.209 113.957 0.047 
63.461 105.74 -0.032 79.574 46.685 0 80.152 101.968 15.173 
70.444 65.137 -0.014 86.236 99.397 72.827 55.127 62.966 8.447 
60.096 70.325 -0.02 51.98 82.983 0.033 33.466 132.615 2.632 
33.928 122.328 0.037 31.819 109.819 2.011 115.368 86.767 52.884 
123.265 57.623 12.682 102.349 46.234 0.005 92.213 40.86 1.818 
121.154 59.941 0.031 113.331 75.924 -0.008 138.197 60.038 3.919 
57.928 138.707 70.086 110.397 117.17 58.885 50.69 135.47 60.067 
141.265 82.075 10.151 148.493 72.877 0.954 139.781 70.812 8.211 
75.72 139.627 83.864 133.414 135.672 31.629 85.67 140.194 28.705 
112.947 44.111 3.315 58.273 133.462 76.137 56.616 125.637 78.043 
49.143 120.551 65.447 76.905 69.842 38.305 78.151 158.239 52.764 
140.458 71.328 0.018 131.228 66.629 0.013 111.051 134.98 70.816 
138.184 90.724 0.037 127.594 86.113 0.035 123.786 74.177 0.025 
142.426 65.754 3.97 66.67 113.064 70.828 68.623 144.838 74.274 
63.811 149.983 58.788 86.433 113.933 87.285 79.215 123.637 91.346 
51.207 142.879 49.408 126.534 119.758 59.672 121.087 106.777 67.101 
149.932 114.268 8.049 104.346 111.655 54.933 139.67 98.968 30.476 
130.141 57.334 -0.001 143.991 76.142 5.629 147.776 78.521 1.967 
123.279 157.084 10.262 119.857 144.53 -0.007 126.615 153.628 -0.003 
120.386 162.497 1.243 113.859 162.589 9.99 145.243 68.439 -0.041 
93.892 150.037 68.229 105.113 151.886 57.768 115.208 98.863 18.694 
136.113 68.448 -0.043 132.094 71.77 -0.056 127.071 69.973 0.019 
119.672 67.576 0.057 125.704 64.018 -0.045 128.81 75.974 -0.002 
124.33 80.579 0.006 117.181 88.525 0.043 130.881 81.365 -0.052 
118.087 100.029 0.055 103.799 113.034 -0.015 133.61 86.765 0.03 
136.705 81.811 0.024 90.62 127.404 0.026 142.735 61.138 -0.019 
138.166 63.059 -0.01 90.964 118.629 13.954 132.83 57.364 5.623 
134.29 64.526 10.055 127.791 51.488 4.609 41.089 122.834 21.342 
110.012 93.004 11.437 136.249 82.59 21.011 85.796 84.999 9.56 
120.311 65.776 28.592 125.616 76.042 37.446 134.879 51.398 1.221 
140.219 55.22 0.165 117.428 52.703 0.001 123.801 53.493 -0.006 
136.67 55.913 2.877 127.207 50.018 0.007 45.349 90.55 40.473 
106.203 45.41 6.439 106.856 40.104 0.945 102.738 42.291 3.691 
99.863 46.111 8.31 100.773 50.64 15.717 97.893 42.091 0.017 
143.339 116.197 3.055 92.3 51.941 19.005 86.897 55.839 25.9 
99.624 54.71 23.966 136.007 102.87 43.463 44.221 111.913 53.661 
52.644 73.566 28.181 100.049 118.973 83.572 105.117 108.749 79.588 
106.216 130.078 77.117 65.298 158.467 8.899 85.812 116.967 41.636 
99.38 91.984 29.53 105.885 98.754 29.036 59.729 111.421 68.011 
92.983 139.454 27.244 65.996 71.249 34.263 77.97 122.277 65.025 
106.509 106.102 47.821 82.81 93.717 47.402 102.518 131.896 46.736 
70.88 104.02 55.562 53.206 130.229 52.76 64.747 109.334 44.572 
105.629 152.039 13.075 51.037 74.702 14.651 54.066 106.786 19.068 
72.319 155.181 10.207 96.71 82.779 26.073 143.634 135.485 1.969 
117.809 135.325 18.367 74.229 140.292 19.106 84.311 149.937 53.11 
80.789 126.542 62.327 81.5 162.546 35.315 63.169 81.532 18.367 
126.94 115.308 17.923 100.664 88.415 47.768 96.261 124.345 62.516 
105.767 149.205 -0.028 74.415 93.935 0.052 88.923 56.731 18.237 
129.797 95.437 7.461 78.627 123.333 13.794 72.978 105.661 60.171 
115.596 93.316 38.973 54.361 150.823 31.2 122.125 104.673 49.661 
84.144 105.101 19.173 116.788 107.502 48.04 110.396 110.339 15.491 
88.506 79.57 38.662 68.363 102.638 63.562 84.467 95.034 15.918 
60.861 135.939 36.942 103.524 100.694 15.257 122.175 108.543 35.465 
87.669 133.764 22.216 86.321 50.533 7.609 53.111 114.578 33.805 
83.483 115.642 3.931 106.089 160.343 32.458 57.976 137.613 20.729 
91.823 110.13 41.319 118.703 50.49 7.731 40.528 91.159 26.834 
104.045 117.421 5.906 126.974 108.104 0.016 64.691 157.63 30.914 
124.808 130.201 0.026 74.144 111.983 31.92 72.142 114.671 37.431 
70.948 80.83 32.306 73.353 99.352 76.152 88.29 137.501 12.137 
109.528 80.072 32.524 93.121 144.752 36.784 88.286 129.169 5.067 
93.326 163.428 28.326 116.607 119.228 31.463 81.966 99.43 2.856 
100.551 46.444 3.414 63.654 145.57 -0.016 50.111 107.967 64.18 
72.921 70.733 13.917 65.451 113.92 83.863 130.89 108.433 54.348 
35.91 113.966 23.538 114.239 121.725 12.74 105.608 158.224 42.061 
73.061 70.589 51.124 139.599 123.029 28.759 70.767 135.246 62.975 
124.514 123.745 30.044 89.162 116.116 72.762 70.294 124.101 39.55 
112.619 145.96 6.483 110.957 121.041 66.115 112.959 89.211 62.095 
105.06 105.088 65.311 96.874 87.845 12.769 98.226 118.114 49.376 
68.687 118.827 0.032 75.091 117.303 51.577 72.428 116.431 55.954 
73.434 94.493 76.367 92.033 104.957 46.987 110.748 95.456 48.67 
117.617 105.571 2.583 73.449 125.112 85.668 75.348 84.756 11.218 
95.151 72.025 28.288 65.237 128.451 12.298 112.278 126.768 65.586 
51.422 128.122 29.304 42.722 101.7 45.139 132.716 82.312 31.576 
141.259 96.58 3.378 75.903 145.024 -0.018 111.786 65.937 11.756 
87.467 130.166 71.985 41.182 119.681 7.535 75.032 126.681 78.161 
66.31 95.497 12.97 129.825 147.798 18.314 125.442 144.815 38.346 
54.967 101.481 38.369 98.821 139.404 57.933 90.607 156.698 57.187 
34.516 108.359 13.093 64.515 127.823 44.152 57.355 89.041 59.392 
59.299 114.989 0.001 132.019 129.573 44.021 92.783 116.159 0.027 
102.766 114.276 13.594 77.963 105.929 43.582 64.9 140.19 49.3 
36.757 127.552 21.96 127.999 127.995 13.081 75.444 161.201 9.354 
71.415 160.103 20.414 80.827 164.228 0.714 70.275 160.9 4.859 
126.287 83.973 48.396 74.12 163.656 0.018 70.183 160.826 0.012 
65.454 160.914 2.526 99.576 138.514 -0.031 90.197 145.613 51.926 
81.997 97.757 66.422 115.461 146.258 54.849 141.025 111.062 30.443 
73.228 111.86 72.127 61.72 100.835 54.572 81.878 88.469 31.18 
105.88 140.201 40.562 119.134 110.433 48.333 102.398 63.783 42.607 
96.406 151.178 32.596 86.628 132.624 24.751 97.404 156.586 0.047 
108.888 111.134 32.612 90.595 79.068 66.35 56.768 115.845 52.793 
72.536 159.55 42.432 84.992 64.559 10.172 47.414 71.301 11.255 
100.903 76.764 41.801 51.91 92.819 46.786 73.997 153.294 61.835 
89.461 123.807 21.051 113.936 130.935 52.832 92.055 91.288 49.05 
87.191 117.755 56.09 78.157 78.82 58.16 104.276 144.655 47.135 
106.933 96.909 67.744 80.647 108.033 11.748 74.767 118.654 4.327 
64.34 145.303 12.745 129.833 89.241 12.206 107.376 135.651 57.346 
108.083 104.442 73.085 103.392 82.975 -0.03 127.131 97.34 31.988 
116.671 146.38 12.172 59.931 122.874 82.34 109.389 93.223 29.085 
105.103 72.157 15.436 147.573 97.498 7.12 144.623 95.455 -0.019 
151.458 98.888 0.646 149.135 94.499 2.861 144.801 89.55 8.228 
103.479 111.808 64.989 147.019 103.289 12.836 152.718 103.278 1.438 
151.936 107.234 3.998 151.068 114.26 -0.003 141.29 112.046 0.015 
71.912 159.951 37.877 147.31 111.917 14.302 144.256 115.255 20.732 
153.583 107.166 0.149 150.845 118.703 4.068 146.562 125.144 8.021 
142.32 129.432 14.378 138.267 131.477 23.395 103.037 120.801 47.918 
115.02 94.472 10.937 41.72 105.763 -0.038 79.425 105.372 22.624 
51.973 123.958 32.715 130.9 151.218 6.684 42.724 132.925 41.14 
129.756 140.953 34.168 111.904 102.616 31.448 99.474 64.117 -0.037 
114.904 119.78 28.227 74.077 134.192 68.784 38.665 122.733 34.679 
39.984 113.295 42.237 81.303 62.452 10.039 61.033 149.972 55.064 
75.782 144.108 53.724 90.988 102.259 79.2 101.206 115.85 70.006 
85.459 105.783 9.994 131.962 95.153 48.037 81.244 66.269 21.76 
108.024 61.039 32.502 104.131 97.547 39.412 101.752 98.181 55.802 
108.516 124.686 62.231 115.887 116.06 28.652 114.851 125.942 71.105 
84.854 111.704 9.53 127.481 102.969 13.479 52.342 129.977 68.665 
36.551 103.25 23.11 131.172 106.45 25.06 111.052 83.309 44.12 
91.425 125.459 26.091 78.531 138.342 71.743 67.992 64.775 15.295 
108.809 128.23 37.111 129.179 144.831 28.449 54.746 67.326 18.861 
80.259 121.567 -0.031 94.166 83.001 23.449 69.116 80.149 21.656 
64.775 102.97 77.417 93.739 99.486 22.075 48.455 100.136 27.312 
82.949 154.322 17.695 135.915 112.128 10.693 101.307 123.977 -0.009 
[...]
POINT_DATA 17595
FIELD FieldData 1
displacements 3 17595 float
15.4457 41.342 -0 8.51623 22.261 3.94314 8.95938 14.3237 9.98578 
-6.34564 2.91529 7.02139 11.2798 26.9649 2.95135 -3.68107 -0.552304 11.7836 
11.0353 17.9644 8.4839 7.48032 13.0756 5.54174 -7.15557 0.668531 11.9449 
0.0556143 10.2791 5.69911 2.91255 6.94166 10.3089 25.4436 41.507 0 
5.74196 14.0143 11.844 11.0879 21.0045 0 11.4067 19.8548 10.355 
13.2477 31.1156 -0 11.763 17.8225 10.5571 13.8663 34.0226 1.57096 
-1.45182 7.90289 14.6297 5.35701 22.915 1.7448 7.1407 15.068 7.6691 
19.7004 29.0121 5.39412 -11.4804 -11.2445 3.6038 13.191 36.1987 -0 
-1.16032 23.2657 0 21.8238 38.4813 -0 21.7075 30.4191 0 
11.2412 16.632 10.1344 4.16062 11.3648 12.9713 16.0621 22.4393 7.78084 
18.8266 25.9937 6.75513 -3.78154 10.3795 -0 -14.771 -1.49305 0 
8.01727 14.2823 11.7026 6.54317 15.149 12.7559 5.12436 14.9768 11.0159 
-7.00609 12.1283 1.78684 5.56327 28.6863 0 4.65335 20.9828 -0 
11.3874 23.452 5.12836 15.4543 27.9652 4.33611 14.9554 37.892 0.754519 
8.81118 30.0556 0.633406 14.5222 24.2694 5.15863 8.03053 24.5482 2.30994 
4.48621 17.45 4.07645 1.95387 8.21382 7.82902 -2.92613 2.12467 9.24506 
-1.55532 10.7649 9.29707 -9.09844 -0.221482 13.0726 2.98071 1.90439 -0 
5.54269 10.9557 11.7268 -0.407328 5.85357 13.1923 -5.88503 3.2233 14.1434 
-3.12089 10.569 3.04432 9.77192 29.142 1.05324 -0.568941 2.50024 10.4036 
-1.96044 1.85835 12.2798 -6.48626 -0.586181 13.2595 12.8922 24.9548 1.67043 
7.63989 10.816 2.63549 -6.98373 -13.624 -0 -0.187573 4.09201 0 
1.19407 20.2045 -0 -10.7571 1.45745 2.57248 -4.74933 9.09223 0 
10.2219 17.7183 11.4134 14.4703 31.6953 3.61844 -8.65459 -7.42616 -0 
-12.6427 -4.46816 9.15445 14.8267 22.3666 -0 12.5993 24.2721 0 
-8.75237 5.85582 2.23041 8.27227 19.6026 0 -5.34512 3.87679 14.2746 
-3.919 5.8074 14.7469 -8.04613 6.10631 0 17.9776 39.1812 1.79737 
-10.0929 -14.2209 -0 -8.32809 -12.52 3.2 -13.0799 -9.47863 -0 
-11.1868 -0.783661 -0 5.36002 12.9512 12.1255 -12.4698 -1.86003 7.35159 
-13.9844 -5.975 0.474012 18.1393 29.2844 0 -14.3513 -2.58491 3.10231 
-13.0872 -0.683706 2.62469 -14.5496 -2.92022 0.449437 -14.1539 -1.32823 0 
-13.1119 0.839423 0 -12.5823 1.63736 -0 -10.5642 5.1383 0 
-7.45745 10.3291 0 15.4756 40.741 -0 -1.85778 12.5159 5.50832 
5.52918 30.8016 -0 -0.0489098 5.32376 12.6397 4.66975 23.7178 0.640123 
0.573212 24.7576 -0 -5.54824 15.6342 0 -12.9224 -0.47426 0.669857 
-11.8343 1.32779 0 -9.77394 3.2381 0.555586 8.49921 15.2832 11.9563 
23.737 32.5786 3.61587 21.359 44.6447 0 19.5424 45.73 -0.182365 
24.7894 36.4235 -0 19.5303 30.4081 -0 25.8493 34.089 0.991088 
-8.47159 -1.71674 12.791 0.449349 7.88704 14.2509 -8.8843 -2.06619 12.184 
18.6941 28.1087 3.10337 22.641 32.7651 0 22.3584 31.099 2.13042 
-7.95255 0.763889 13.583 2.58948 10.0704 9.23974 -7.94169 -3.28201 8.44329 
23.2896 42.479 0.758179 -7.41146 -1.47936 13.0111 -6.13506 -1.46304 12.7833 
-6.05489 -1.45344 11.8976 6.40465 21.2187 5.10574 -10.5168 -6.57899 10.0615 
23.3687 32.2809 0 24.4787 33.2966 0 -3.80678 5.75664 14.6724 
17.3367 26.3659 0 18.2958 26.6255 0 21.7815 30.9819 0 
24.2095 33.1739 0.899471 -3.8937 1.08672 12.6169 -8.97536 -0.729364 13.1485 
-10.7609 -2.45722 11.9475 -3.51541 3.21517 13.5575 -5.50403 1.65393 13.5648 
-11.006 -2.46466 10.8264 1.37149 11.0733 13.6618 2.17435 11.3041 13.935 
9.81309 21.8566 2.06873 1.01645 8.0764 13.7781 11.0943 20.6826 8.70802 
26.3934 35.9623 0 21.0273 30.8344 1.34549 20.7943 31.4556 0.772276 
-3.62865 -5.42399 2.7043 1.99632 -2.50106 0 -2.05341 -4.48104 -0 
-6.07185 -10.837 0 -6.4362 -10.929 2.2579 24.2274 33.62 0 
-7.57023 0.563331 13.2063 -5.92304 -0.605155 12.1747 9.95234 17.2774 7.00222 
24.1773 32.7273 0 23.1432 31.7124 0 23.2319 32.2854 -0 
23.0083 33.694 0 24.7179 34.4152 -0 21.6341 30.331 0 
19.8574 28.7106 -0 15.8414 24.9766 0 20.1659 28.659 0 
11.7526 19.3735 0 3.92935 10.6247 0 18.447 27.1054 0 
20.0114 29.1006 0 -3.81548 1.99763 0 26.2326 34.8318 0 
25.6517 34.1774 0 -1.16981 6.07482 5.54158 25.9651 34.3941 1.42539 
23.7061 31.707 2.66068 26.3185 36.9622 1.31561 -10.7038 1.22701 5.24761 
11.5195 20.0427 4.88281 16.9285 25.3876 6.19009 4.44835 22.0845 3.40901 
18.9421 25.4458 6.96438 15.1091 21.7409 9.26296 27.4408 36.5597 -0 
27.2251 35.9059 -0 24.3311 39.9661 -0 25.9135 38.4854 -0 
26.929 35.1243 0.647129 26.7309 39.0092 0 -3.3349 5.23126 6.98343 
21.8416 41.3985 1.96579 21.2816 46.486 0 20.7459 44.299 1.12364 
19.8866 40.4815 2.08838 19.0169 35.95 2.79444 20.352 46.3425 -0 
10.0544 19.2407 0.959884 15.9612 34.7853 2.00394 13.6771 31.029 2.43998 
17.2007 31.8918 3.39845 7.69497 17.2772 11.286 -5.67331 -0.0906216 10.2326 
-0.043427 13.7978 3.48811 -3.48492 5.37303 14.4047 -0.912792 7.23301 14.0203 
-4.2857 5.64146 14.805 -13.6895 -7.17717 2.40279 -2.50814 5.10325 11.762 
7.07454 16.3183 9.58178 6.78126 14.7214 9.71322 -4.03488 0.433994 12.006 
-5.26944 -2.6371 8.52752 2.83319 18.8645 4.25157 -4.84885 2.0002 13.7172 
3.16739 10.3076 12.8537 1.36186 10.702 11.18 -1.44401 2.46896 13.5349 
-2.47811 4.84659 11.7446 -8.74769 -1.05417 11.656 -4.76957 4.61226 10.8278 
-4.31268 -8.28361 3.84177 -1.6121 15.5858 2.5558 -7.70841 6.89506 5.55712 
-13.4658 -7.48024 2.68396 9.34916 20.5276 8.17293 4.44152 13.9843 0.542905 
3.7092 3.18308 7.08634 -11.6437 -3.11481 5.3328 -8.95917 -4.17521 12.1582 
-5.27952 1.70552 13.9469 -10.9687 -10.886 6.66757 -2.53119 17.2437 4.1493 
8.32449 13.3924 6.53138 6.49766 14.1923 11.808 -3.00742 4.26622 14.6509 
-3.61619 -7.99984 -0 -2.74269 17.7161 -0 14.3056 33.2919 2.64477 
14.5209 22.3264 2.93903 -6.36333 3.40493 4.95022 -2.38274 4.09899 12.2194 
9.00597 16.2031 11.2012 -13.4319 -3.41869 7.24615 5.39935 13.2692 12.5781 
-0.937562 11.0388 6.82046 4.33838 11.7149 12.7708 5.92207 12.0105 6.26241 
6.83047 18.4383 8.87599 -2.1321 3.2529 11.6983 1.0521 15.7411 5.5975 
-11.262 -1.2073 9.64613 6.61331 15.1346 5.97114 6.72615 13.4328 10.7424 
-5.95902 -0.556909 7.26659 15.6632 38.7337 1.22503 -7.8171 3.20867 8.50483 
-3.08995 7.29583 1.74437 -7.093 -8.78521 6.46781 -13.2141 -1.12376 5.67785 
-0.0699266 7.79628 11.78 24.2771 37.0249 2.56643 -4.94605 6.1564 5.05939 
3.00005 8.24327 2.67599 11.3234 17.2091 0 -13.3389 -6.00249 6.7975 
7.15476 6.82133 -0 -4.42052 6.42056 9.4831 -5.00992 4.86442 10.4279 
0.73563 16.7281 6.67251 -0.986849 2.71303 11.7553 -7.09541 -2.60016 4.00219 
13.3014 20.7591 9.44636 -6.32703 -4.4262 10.3341 -4.97113 0.974007 2.00324 
-9.56664 -11.768 5.01918 4.43727 9.14686 10.4908 -1.08994 15.3901 1.21229 
20.5079 42.9957 1.18025 -14.4204 -4.42176 -0 -3.98437 -0.193641 10.9705 
4.03169 25.8664 2.6498 -3.9304 0.00333672 12.5649 4.40455 14.0624 12.8881 
-8.88364 1.85036 5.35884 5.4095 7.82904 5.39213 -6.67604 -6.564 8.53135 
5.38515 16.001 5.64005 5.82867 15.0593 8.27516 -7.82434 -0.382189 13.4739 
5.14544 9.86751 9.8479 -3.08249 4.08513 14.0898 -7.2087 1.80942 10.9811 
-0.115865 -4.84994 2.44893 -1.04108 7.30808 14.6017 6.07066 12.8555 12.5014 
1.17941 8.73403 13.8644 8.77308 20.9081 5.20287 -0.599609 5.8149 13.3774 
-9.0188 5.30732 0 -4.49023 3.2794 12.5928 -4.56906 2.80699 12.7207 
0.0159881 3.13236 11.1871 0.767146 8.79313 12.348 6.28031 13.5008 12.4647 
9.72571 16.3456 1.18637 -5.70835 0.850981 13.4714 -0.0460918 20.2622 3.50338 
12.3503 24.482 6.90973 -11.0751 1.2588 3.96591 -1.69008 6.7994 14.6848 
-10.9033 0.47618 7.62322 -4.84339 2.21414 8.57711 14.9201 22.7307 8.60593 
15.2177 24.765 1.20104 -12.3247 -5.50702 -0 20.7634 31.03 4.21472 
-5.57029 2.5134 14.4753 -11.1725 2.44059 1.97341 -5.87885 1.07893 13.6909 
-4.78711 13.6087 4.14251 0.207277 3.44757 5.36214 -0.827464 5.241 10.1128 
-5.02218 5.69496 8.8708 -4.5655 1.23002 14.2257 -8.68088 -5.03799 10.8871 
-8.78133 3.3782 3.0569 -8.5436 0.388582 11.3587 -0.627793 4.05098 8.98195 
-9.98501 6.11227 -0 2.10851 11.1058 11.6991 -0.285758 7.85032 0 
3.06067 9.27503 5.6777 -2.2302 7.23098 11.2109 -10.3728 -2.0391 11.8388 
-11.1741 0.00533249 5.13261 6.905 9.26197 4.99432 -12.5323 -9.75601 2.30294 
-12.8147 -8.44299 4.49625 -11.5364 -12.568 0 -13.0862 -9.24058 1.42977 
10.9069 18.1604 11.1389 -12.6192 -11.996 0 -13.2828 -10.4293 -0 
-13.2943 -9.25399 0.559302 -3.21556 -3.03551 -0 -7.01679 -2.83193 12.9725 
0.108114 5.71859 12.2252 -3.62419 3.58247 12.6939 8.11057 18.1906 8.68559 
-3.32363 2.04815 12.9107 -2.88244 4.08416 10.6773 2.07166 15.7195 8.60185 
-1.72144 -0.0622516 12.0181 4.08292 11.4663 12.7822 14.1527 22.807 6.75128 
-6.70052 -7.05847 8.36254 -5.88901 -0.0780111 7.99604 -8.22592 -11.3255 -0 
4.22239 10.3386 10.5974 5.58978 10.346 10.3665 -6.02308 1.14487 11.472 
-11.7477 -7.89 8.51044 10.9705 32.1846 2.20517 0.0473376 15.7848 1.63298 
11.2961 19.1567 9.83763 -2.99278 5.04584 8.43517 -10.5664 -2.68116 11.9192 
-2.83033 3.70028 7.43552 -0.331445 5.86774 13.9445 3.72203 12.1844 11.7292 
-2.77859 4.21753 13.6225 3.92067 11.2364 9.46651 -3.54056 -1.10028 12.589 
2.91896 9.96189 13.2657 -2.62374 10.3372 4.70383 -6.9925 5.53928 1.74951 
-14.1521 -3.58123 3.57625 15.9446 23.9316 4.38798 -2.53699 3.69648 14.3834 
0.765887 8.682 13.8763 13.8165 26.4511 -0 10.4993 18.1141 9.62115 
0.704998 -3.09206 4.43587 -5.5391 -1.02672 12.8451 9.17044 17.1404 9.66731 
17.1908 27.9296 5.39469 14.4847 25.527 2.09361 15.8708 26.1818 0 
14.4813 26.8672 0 15.727 27.1241 0.836307 16.7548 27.0306 2.52318 
-0.259503 7.39326 14.2709 12.2899 23.2498 3.78781 13.0254 25.9108 0.666679 
11.9088 24.4931 1.21143 10.4586 22.7187 0 11.3982 19.972 0 
-11.9879 -8.35117 7.69743 10.0069 21.1906 4.07377 8.58289 18.8954 6.1455 
12.1741 25.1743 0 8.67063 21.2794 0.951819 7.00913 17.9454 2.09099 
6.04701 14.9199 4.4135 4.58219 12.6877 7.14809 0.0599594 5.81268 13.4135 
12.2153 20.1526 4.55063 -9.41679 6.01056 0 -2.32347 10.2501 7.48663 
-9.69602 1.19485 8.33014 -1.25165 0.437643 2.14392 -10.3472 -1.54706 9.29451 
0.786852 7.50039 9.50956 6.77068 13.8915 10.2594 17.566 36.2697 -0 
4.3555 8.6234 9.85885 -7.25366 0.37017 13.7524 -9.29385 -0.0871803 7.80475 
-7.00815 0.611411 8.73545 10.1078 32.4303 1.93568 -11.1958 -2.79226 11.4651 
-9.33321 -2.6214 12.6808 -0.565338 5.26138 13.0663 -1.71067 6.2196 14.4882 
-0.575424 11.6845 4.20466 8.43209 17.3805 11.663 8.76079 27.4924 3.61242 
17.1445 25.8856 6.04043 5.72045 13.4887 11.474 3.26668 10.4999 13.0772 
-1.30773 6.27038 14.6305 5.06011 10.1002 9.8564 -2.15823 7.52485 14.7098 
-1.71776 8.93849 4.01036 11.5222 18.3608 5.02324 -7.3566 -1.84598 12.5745 
-7.16414 3.77039 5.1078 9.59639 17.1417 8.05196 10.5299 17.3094 11.0823 
-2.62567 3.12966 8.78002 -7.55395 0.695413 13.9194 5.40685 26.6566 1.85585 
1.15462 4.46706 11.9165 0.375951 5.68623 7.94287 2.43917 19.264 1.81381 
-5.9944 4.39791 0 8.7228 20.8972 7.46788 -0.339899 18.8692 4.87588 
-1.98531 0.939074 11.5872 3.46728 13.7893 7.72453 -6.36089 6.46501 6.50923 
-11.6491 -8.70969 4.03636 10.4819 17.536 3.64482 0.906577 4.75433 0 
-10.4815 -10.8592 0 -13.0785 1.08474 0.872179 -5.96373 -1.10317 11.0356 
-7.60972 9.86225 2.7023 4.49439 4.17827 0 1.27472 7.20433 8.7815 
3.15279 10.8637 13.5464 -7.98434 5.72906 5.81606 13.4266 19.6511 9.88663 
-6.29111 7.23144 1.44876 -7.26812 9.24668 0 -6.4871 7.33534 0 
7.03444 12.9875 8.5192 -1.73683 6.24899 4.41132 -9.16194 3.28048 6.11185 
-3.18469 4.24313 11.0821 -7.76652 -13.4672 1.55029 -9.40111 -13.1384 1.94399 
-8.39425 -14.515 -0 -1.98639 5.50104 14.6911 -0.103526 3.02235 6.20672 
-8.4674 -3.05108 -0 -2.52756 3.81886 11.4351 -12.9174 -7.96499 5.19794 
3.73849 10.2205 11.2978 -0.0735338 20.1048 2.45875 -13.3245 -1.45919 4.84034 
-2.79155 8.91724 4.66616 -12.0469 -4.36729 10.0615 7.7459 12.3922 -0 
-6.1236 2.38302 9.80227 -5.72497 -5.75073 3.08476 13.8397 22.6324 7.90097 
-6.03466 3.94356 14.4203 -7.93926 6.60788 4.8685 15.1583 24.6722 4.26031 
-2.60547 -2.00464 10.7585 -1.23113 5.90602 13.8334 3.24285 12.8748 12.5892 
9.13791 21.5383 -0 6.49739 16.6923 -0 -8.565 -0.314102 13.3536 
-6.55614 7.65043 4.12675 7.00634 14.5657 12.1975 20.5388 28.5181 4.27367 
-1.04386 6.8625 14.1841 4.45154 15.7892 3.92582 -4.12677 2.16678 10.8114 
-5.52326 0.54373 13.2509 -6.73795 0.802014 13.5779 -6.38931 0.224453 13.3177 
-6.73983 -0.0844366 13.3749 -6.32191 -0.851375 13.14 -5.83436 -0.0805136 13.1915 
-5.24619 0.164112 13.1437 -5.05985 -0.455106 12.9449 -4.66432 -0.924675 12.4269 
-5.18896 -1.2922 12.2149 -4.93123 1.18357 13.3166 10.6951 35.1354 0 
-2.18597 2.94282 12.8472 -4.58752 2.04342 13.4819 -5.23643 2.81391 13.9306 
-4.63135 4.08344 14.2091 -5.42129 1.09899 13.5258 -6.22704 2.06733 13.9166 
-7.11915 2.28587 13.9823 4.11666 10.7669 8.18722 1.12548 5.47546 11.0836 
-5.91214 5.39746 7.34429 -13.4797 -1.24261 -0 4.34361 3.53834 4.16139 
-11.719 -10.4393 5.3755 -4.43983 3.66518 14.2301 -3.28512 13.2458 3.44395 
-3.20318 3.77824 14.2205 -8.28422 -0.70077 13.3085 -5.92312 1.9542 14.5542 
-0.372641 6.88196 14.0631 -6.66215 -1.53537 13.5797 -2.25392 7.27997 14.3701 
-6.64725 4.03093 9.7764 -14.2041 -5.75355 3.28381 12.1373 23.5135 4.32745 
-10.7427 -2.5048 11.6441 11.4782 22.1257 5.73006 -4.03153 13.3729 0 
-1.03605 14.2669 0.892541 -2.91344 11.6645 0.623927 -1.42108 13.817 0 
-1.93237 16.931 0 -1.30638 20.9892 -0 -3.26725 20.5128 -0 
2.87674 24.7344 -0 -11.4529 -3.25232 0.892256 4.65008 23.514 0.295071 
2.31863 19.9091 0.903017 5.05584 25.5391 -0 4.82904 27.3036 0 
-12.6147 0.504682 0 1.76119 26.7816 -0 9.90644 14.9997 2.5315 
8.47381 33.7456 0 4.23034 22.943 0 2.90911 20.572 0.381821 
-3.28577 12.0434 0 -4.96153 10.991 0 -5.72004 12.8456 -0 
-7.14176 12.319 0 -6.14372 9.76559 -0 -3.77905 10.1703 0.233143 
-4.55 9.50257 0.998435 -4.81202 8.72589 2.4554 0.605086 10.0511 13.213 
-1.9193 13.4419 5.89858 6.14607 12.652 12.2554 7.90991 18.9279 5.83673 
-2.68661 3.90262 13.3042 5.10224 3.92329 3.64134 -3.81929 17.8841 2.42427 
-6.91499 -10.0571 2.89912 2.07056 11.5961 6.03702 -4.82539 -4.06099 7.82149 
6.82496 14.1303 9.69606 -7.24576 -10.821 4.63774 8.67382 10.739 0 
6.30727 7.04518 -0 -5.54478 10.2402 6.24716 -9.81799 -2.14964 12.2829 
0.684314 6.48739 13.7049 2.32518 8.45222 12.8778 -12.3692 -2.59639 9.08067 
-3.0258 -1.98916 6.3287 -1.48892 2.385 12.1829 -7.57889 1.01825 13.8649 
-9.88373 -9.49199 8.5444 13.6185 21.2889 7.39811 1.39745 5.40015 9.65255 
-7.6229 -1.7411 11.7442 11.5805 18.3376 10.8206 1.84856 22.9065 0 
-12.5304 -6.71787 5.37195 -1.72885 7.23811 6.46596 -1.2738 9.78862 5.01269 
-3.87632 18.6008 1.62704 -9.69247 -1.99654 11.0368 -11.7575 -4.71209 10.3793 
-5.60776 2.82953 14.2532 15.3537 36.0119 2.0243 -6.9166 -0.403158 13.7259 
-3.77071 7.87341 9.58865 -10.225 -9.19023 6.26088 4.72061 7.1082 8.46527 
2.97651 23.8793 3.43699 9.95029 17.8942 9.81861 -0.382822 16.0919 0 
22.777 31.7469 4.12815 -8.25804 4.57723 7.06732 7.47094 13.7514 6.28227 
-3.97084 4.47456 14.7433 13.544 26.7582 3.48082 -5.91925 6.95785 3.25886 
4.83775 12.1265 11.734 -8.03101 -1.60632 12.7385 8.9369 19.3388 7.6845 
9.15327 19.0659 9.43772 -3.11768 5.64819 9.28189 -3.0184 6.61301 9.62767 
-4.34055 2.92739 12.0385 12.5402 20.0374 10.3378 -12.2123 2.54977 -0 
2.78839 9.46071 11.2075 4.35305 4.7888 7.3898 -9.65807 -10.895 6.94042 
6.12175 25.151 1.17051 -4.06242 2.35977 13.6602 -2.38382 2.50676 11.0994 
-12.0406 0.241014 2.48634 2.13508 24.58 1.68526 -6.8889 1.96876 11.2196 
7.68426 15.4821 0 -9.6339 -1.09837 11.3792 2.9985 9.39577 9.58266 
1.14889 8.597 13.035 -14.1324 -2.9557 5.22814 -3.01063 1.77737 12.0396 
2.50678 10.4674 9.86309 -0.633445 7.50755 9.46772 -11.3808 -11.5364 1.7185 
-3.21155 7.78516 6.06399 -2.11991 0.743938 0 -13.6822 -4.60951 6.94996 
-3.31933 1.93105 4.16765 -14.2875 -1.56447 2.43655 -7.93592 1.31813 7.17044 
2.91161 17.6083 3.21278 1.47215 8.76864 13.6749 10.433 23.2135 6.5822 
-11.615 2.86295 0 -13.3601 0.223591 1.74864 9.21525 13.4297 3.17068 
-12.1298 -1.04734 6.06098 -5.18182 -1.55497 9.98066 -9.2065 1.15042 9.62866 
-8.23536 -0.784069 9.50796 -13.5613 -7.72449 1.55469 -5.36513 2.96937 14.579 
-2.02337 1.58601 8.52736 -14.8874 -3.93511 -0 -4.37615 4.59288 11.1897 
2.41578 4.02007 9.12644 6.44514 25.9912 3.34602 6.90464 18.7777 0.953267 
3.76734 8.32469 9.66481 -1.09592 -4.74123 4.56142 -3.38197 -8.65009 2.84221 
-14.6135 -2.37796 -0 -14.0244 -0.365819 -0 -12.2587 -3.03922 9.93767 
-9.45062 -2.8145 11.9659 -4.68683 0.16702 12.6994 14.6302 23.3881 2.89048 
7.33857 15.555 8.72395 3.06808 11.188 12.1353 -0.991201 3.84891 11.6017 
6.3036 12.728 11.5333 -9.38369 -7.92222 8.74896 -6.31864 -1.64306 12.5627 
10.4829 19.9543 4.24163 -6.59183 -0.454035 13.2268 -13.4938 -1.07267 2.90133 
3.35039 20.5342 3.02374 -12.5312 -0.171214 5.45978 -10.3981 1.14109 4.35779 
-0.0687329 5.22965 11.5907 6.00747 18.664 7.34698 4.46779 12.8066 13.2561 
-6.25821 5.46397 4.44037 3.73388 16.6249 7.88404 -8.72618 -0.360286 11.8798 
-13.008 -3.59496 8.55221 -13.691 -6.74647 -0 0.752787 -3.1259 0 
-8.67606 -0.867832 13.494 -9.99269 -10.2 2.31134 -0.245258 6.58245 13.4462 
-9.15009 2.57666 -0 -8.10524 0.357624 -0 -11.5846 1.4122 0 
-13.5354 -0.630454 2.4225 4.01297 13.48 10.2847 0.80197 5.45182 10.427 
-5.95194 10.8811 1.48549 -2.40157 4.99336 13.7822 -4.88658 0.558171 13.152 
2.56931 4.18803 3.47003 -14.3382 -3.79495 3.6157 2.5877 18.536 2.40534 
16.4861 22.615 8.40135 6.11234 13.2671 12.648 13.635 19.8282 8.67044 
2.58278 12.1395 13.6902 -4.12722 -3.759 6.26522 4.17793 7.68079 -0 
-13.175 -3.31709 0 14.1122 29.32 4.5207 -4.68851 -6.96074 3.5023 
-0.224095 8.45096 11.1872 -4.84994 -0.0485708 11.5474 8.41387 18.4378 9.91848 
-3.0541 8.64563 7.89047 -10.7172 -2.27791 10.3822 8.73098 11.8386 2.29986 
-12.0761 -4.86552 10.3342 1.13022 21.2014 2.96863 -10.0549 -12.589 3.50075 
5.99919 8.98817 2.74795 -3.69401 -4.48467 4.53587 -8.91018 7.53165 1.11767 
-11.565 1.95456 2.40253 4.62534 12.0383 10.0166 -5.57371 0.452056 9.15908 
-9.26072 4.12819 0.984295 -2.52314 -0.870631 3.35097 -6.51549 3.33284 9.26453 
4.54483 19.816 6.89423 12.014 22.0301 6.69147 7.69475 27.6556 3.35066 
-4.7398 3.13998 14.2731 -10.9449 -6.12298 8.14358 -7.30757 -1.668 12.2135 
-2.98521 1.03947 9.63742 -14.1462 -1.60768 1.91307 -2.28574 5.59332 12.4203 
0.744748 7.84106 13.3037 7.2273 21.9061 6.47683 5.37225 13.2507 3.38592 
16.4663 23.8031 7.11086 -13.711 -6.34638 3.60362 9.40654 15.893 11.1498 
-5.47446 -0.694909 13.5721 2.75528 6.71348 7.50054 -14.0463 -2.53429 5.35643 
-1.04683 4.38482 9.01915 19.1337 27.4433 4.26075 -7.02972 -0.73737 10.3186 
-3.40259 13.8595 6.07475 -7.51768 -0.105059 13.5144 0.573246 12.82 9.32398 
-3.97634 14.8231 1.96869 21.4834 28.9698 5.48248 11.0373 22.2582 1.0079 
-9.54294 -1.73404 12.5986 15.5599 33.8914 2.57086 -8.16323 5.35801 4.63814 
-5.81281 -2.36456 12.8635 -13.7976 -6.60645 2.99923 0.87508 9.78013 9.4251 
-12.1973 1.33333 2.93172 11.7241 25.6915 5.42454 -4.13095 2.87801 12.9071 
4.901 11.0929 8.71987 -6.74252 9.36893 0 -4.16773 2.55633 12.9275 
-8.95694 8.19098 0 -11.2878 -0.0557567 7.7963 -8.24096 4.45637 4.88815 
-12.1641 -6.65812 2.94214 9.28849 16.2642 11.721 0.514854 9.36332 12.3933 
0.792732 8.72968 11.0075 -3.31499 3.33871 10.637 3.4309 12.585 10.2345 
-3.50882 3.11947 13.5553 17.8721 30.9011 3.1573 -10.7737 3.82153 2.45993 
18.4673 27.9758 0 15.7974 26.1814 0 -12.9413 -6.76272 1.27069 
-2.23784 4.96091 14.1383 -6.41173 1.00809 14.0428 17.4975 24.1403 7.95265 
-9.74346 0.591973 6.16283 -5.73193 8.93181 5.07599 3.87873 2.72632 5.19721 
-8.96966 -7.51798 9.41271 -7.64515 -7.54567 9.59742 3.84763 19.9719 4.798 
9.51066 15.7392 6.33511 7.35179 14.1326 10.3333 2.92645 3.65554 6.66425 
5.65824 10.7317 7.08892 -2.31107 9.70741 9.13698 -4.57484 -3.02126 11.7474 
19.4321 39.0758 2.36055 5.36087 20.6448 5.82077 13.9527 22.1639 2.47713 
-4.83686 -7.8225 4.60654 -5.68615 14.165 0 -4.22647 13.5761 0 
18.7824 25.9955 6.57244 -0.428084 17.0647 6.27819 -14.649 -2.75976 2.39063 
7.54159 21.1659 7.43018 -6.00216 -5.3205 10.765 -0.186756 22.633 2.19358 
5.85627 6.11145 1.53373 -8.33773 0.924626 13.5404 19.2201 27.7067 6.19028 
-0.00611403 8.1824 14.4038 20.0169 34.9527 -0 23.6375 37.7248 0 
-2.8782 6.69728 14.7572 -2.66036 6.61245 14.5747 -1.92944 4.9734 12.9587 
16.5503 24.6889 3.08411 -9.4375 -6.34127 2.49451 8.23536 15.9099 7.65689 